# vtk DataFile Version 3.0
Unnamed
ASCII

DATASET UNSTRUCTURED_GRID
POINTS 66 float
0 0 0.0
0.2 0 0.0
0.4 0 0.0
0.6 0 0.0
0.8 0 0.0
1 0 0.0
1.2 0 0.0
1.4 0 0.0
1.6 0 0.0
1.8 0 0.0
2 0 0.0
0 0.2 0.0
0.2 0.2 0.0
0.4 0.2 0.0
0.6 0.2 0.0
0.8 0.2 0.0
1 0.2 0.0
1.2 0.2 0.0
1.4 0.2 0.0
1.6 0.2 0.0
1.8 0.2 0.0
2 0.2 0.0
0 0.4 0.0
0.2 0.4 0.0
0.4 0.4 0.0
0.6 0.4 0.0
0.8 0.4 0.0
1 0.4 0.0
1.2 0.4 0.0
1.4 0.4 0.0
1.6 0.4 0.0
1.8 0.4 0.0
2 0.4 0.0
0 0.6 0.0
0.2 0.6 0.0
0.4 0.6 0.0
0.6 0.6 0.0
0.8 0.6 0.0
1 0.6 0.0
1.2 0.6 0.0
1.4 0.6 0.0
1.6 0.6 0.0
1.8 0.6 0.0
2 0.6 0.0
0 0.8 0.0
0.2 0.8 0.0
0.4 0.8 0.0
0.6 0.8 0.0
0.8 0.8 0.0
1 0.8 0.0
1.2 0.8 0.0
1.4 0.8 0.0
1.6 0.8 0.0
1.8 0.8 0.0
2 0.8 0.0
0 1 0.0
0.2 1 0.0
0.4 1 0.0
0.6 1 0.0
0.8 1 0.0
1 1 0.0
1.2 1 0.0
1.4 1 0.0
1.6 1 0.0
1.8 1 0.0
2 1 0.0

CELLS 100 400
3 0 1 11
3 1 12 11
3 1 2 12
3 2 13 12
3 2 3 13
3 3 14 13
3 3 4 14
3 4 15 14
3 4 5 15
3 5 16 15
3 5 6 16
3 6 17 16
3 6 7 17
3 7 18 17
3 7 8 18
3 8 19 18
3 8 9 19
3 9 20 19
3 9 10 20
3 10 21 20
3 11 12 22
3 12 23 22
3 12 13 23
3 13 24 23
3 13 14 24
3 14 25 24
3 14 15 25
3 15 26 25
3 15 16 26
3 16 27 26
3 16 17 27
3 17 28 27
3 17 18 28
3 18 29 28
3 18 19 29
3 19 30 29
3 19 20 30
3 20 31 30
3 20 21 31
3 21 32 31
3 22 23 33
3 23 34 33
3 23 24 34
3 24 35 34
3 24 25 35
3 25 36 35
3 25 26 36
3 26 37 36
3 26 27 37
3 27 38 37
3 27 28 38
3 28 39 38
3 28 29 39
3 29 40 39
3 29 30 40
3 30 41 40
3 30 31 41
3 31 42 41
3 31 32 42
3 32 43 42
3 33 34 44
3 34 45 44
3 34 35 45
3 35 46 45
3 35 36 46
3 36 47 46
3 36 37 47
3 37 48 47
3 37 38 48
3 38 49 48
3 38 39 49
3 39 50 49
3 39 40 50
3 40 51 50
3 40 41 51
3 41 52 51
3 41 42 52
3 42 53 52
3 42 43 53
3 43 54 53
3 44 45 55
3 45 56 55
3 45 46 56
3 46 57 56
3 46 47 57
3 47 58 57
3 47 48 58
3 48 59 58
3 48 49 59
3 49 60 59
3 49 50 60
3 50 61 60
3 50 51 61
3 51 62 61
3 51 52 62
3 52 63 62
3 52 53 63
3 53 64 63
3 53 54 64
3 54 65 64

CELL_TYPES 100
5
5
5
5
5
5
5
5
5
5
5
5
5
5
5
5
5
5
5
5
5
5
5
5
5
5
5
5
5
5
5
5
5
5
5
5
5
5
5
5
5
5
5
5
5
5
5
5
5
5
5
5
5
5
5
5
5
5
5
5
5
5
5
5
5
5
5
5
5
5
5
5
5
5
5
5
5
5
5
5
5
5
5
5
5
5
5
5
5
5
5
5
5
5
5
5
5
5
5
5

POINT_DATA 66
SCALARS X0 float
LOOKUP_TABLE default
0.044069
0.00621793
0.0347075
0.0189699
0.0434556
0.0474478
0.0442247
0.025832
-0.0202581
-0.00482365
0.0289453
0.0339435
-0.0456883
-0.0499466
0.0169946
0.0406048
-0.000301709
0.0453618
0.0363253
-0.0314625
-0.00157888
0.0177331
-0.014695
0.0492763
0.0499027
-0.049799
0.0167579
0.0191249
-0.0499999
0.0486253
-0.0499998
0.0389064
-0.0126011
-0.00532859
0.00498623
0.0401935
0.0480838
0.043035
0.0379924
0.0153333
0.0437348
0.0122353
-0.00471613
-0.0475054
-0.0241436
-0.0435173
-0.0440194
-0.0457905
0.00362136
0.0454709
0.0418811
0.017162
0.0216162
-0.0459411
-0.00902493
-0.00503635
-0.0108396
0.010794
-0.0427491
-0.0478562
-0.0325247
0.0482687
-0.00139796
0.0217594
0.0499664
0.0427213
SCALARS X1 float
LOOKUP_TABLE default
-0.0236205
0.0496119
0.0359915
-0.0462617
-0.0247308
-0.0157703
0.0233275
-0.0428102
0.0457122
-0.0497668
0.0407697
-0.0367129
0.0203121
0.00230952
-0.0470232
0.0291762
-0.0499991
-0.0210311
-0.034358
-0.0388601
0.0499751
-0.0467497
-0.0477918
0.00847638
0.00311779
-0.00447835
-0.0471081
-0.0461978
-0.000109721
0.011644
-0.000154461
0.0314053
-0.0483861
-0.0497153
0.0497508
-0.0297403
-0.0137096
-0.0254556
-0.0325051
0.0475909
-0.0242336
-0.0484799
0.0497771
0.0155961
-0.0437845
0.024622
-0.0237127
0.0200807
0.0498687
0.0207942
0.0273126
0.0469624
0.0450859
-0.0197337
0.0491788
-0.0497457
-0.0488109
-0.048821
-0.0259329
0.014484
-0.0379755
0.0130433
0.0499805
0.045017
0.00183329
-0.0259787
